168
Lattice="22.41411615340222 -4.4516911188684545e-08 3.351894005686804e-08 -4.4060320508515834e-08 22.18422205328265 -9.814304552531465e-08 1.9795642654977076e-08 -5.840862258007936e-08 13.186881230540228" Properties=species:S:1:pos:R:3:forces:R:3 energy=-1220.311767578125 stress="0.00014802983787376434 -5.2434316444305296e-08 1.2349776312703398e-08 -5.2434316444305296e-08 0.00014803431986365467 -2.0389948929278034e-07 1.2349776312703398e-08 -2.0389948929278034e-07 0.0001476713368901983" free_energy=-1220.311767578125 pbc="T T T"
Nb      -0.00000183       0.00000525       6.59344130       0.00012773      -0.00003589       0.00000708
Mo      -0.00000141       5.54605445       6.59343865       0.00008573       0.00006515       0.00005859
Mo      -0.00000246      11.09210890       6.59343932       0.00010335       0.00015982       0.00002010
Mo      -0.00000089      16.63816591       6.59344279       0.00006551      -0.00006681      -0.00004602
Mo       3.20201574       0.00000610       6.59344090      -0.00001989      -0.00008202      -0.00001691
Nb       3.20201217       5.54605670       6.59344140       0.00001608      -0.00001000      -0.00005076
Mo       3.20201345      11.09211607       6.59344269       0.00002675      -0.00010141      -0.00005680
Nb       3.20201513      16.63816531       6.59344290       0.00002026      -0.00005780      -0.00000626
Nb       6.40403158       0.00000237       6.59344245       0.00005285      -0.00000666      -0.00005375
Nb       6.40403009       5.54605630       6.59343995       0.00002066       0.00006008      -0.00004508
Nb       6.40403064      11.09210808       6.59344105       0.00007515       0.00013724      -0.00001576
Nb       6.40402897      16.63816521       6.59344254       0.00006617      -0.00007291      -0.00001326
Mo       9.60604994       0.00000485       6.59344152       0.00000963      -0.00006722      -0.00000266
Mo       9.60604590       5.54605834       6.59343825       0.00003555      -0.00001526       0.00000464
Mo       9.60604654      11.09210780       6.59344539       0.00002738       0.00014760      -0.00010565
Mo       9.60604822      16.63816369       6.59344005      -0.00000214      -0.00009561      -0.00003084
Mo      12.80806574       0.00000487       6.59344222       0.00005500      -0.00010192      -0.00001812
Mo      12.80806470       5.54605518       6.59343948       0.00006035       0.00001550      -0.00000527
Nb      12.80806159      11.09210931       6.59343956       0.00011803       0.00009976      -0.00001208
Nb      12.80806650      16.63816457       6.59344103       0.00003937      -0.00007959       0.00000629
Nb      16.01007697       0.00000368       6.59343968       0.00015136      -0.00001691      -0.00000054
Nb      16.01008152       5.54605634       6.59343879       0.00007159       0.00005006       0.00000645
Nb      16.01008119      11.09211290       6.59343977       0.00011218       0.00007544       0.00000278
Nb      16.01007825      16.63816679       6.59344197       0.00007659      -0.00007452      -0.00002863
Mo      19.21210042      -0.00000065       6.59344113      -0.00001299      -0.00004336       0.00000433
Nb      19.21210460       5.54605159       6.59343959      -0.00001408       0.00004111       0.00003807
Mo      19.21210245      11.09210297       6.59344057      -0.00002129       0.00011767      -0.00000394
Mo      19.21210039      16.63816362       6.59344069      -0.00001485      -0.00013957      -0.00000437
Mo       1.60100507       2.77302761       6.59344364      -0.00003106       0.00003297      -0.00003212
Mo       1.60100470       8.31908689       6.59344138      -0.00000465      -0.00000419      -0.00000334
Nb       1.60100659      13.86514028       6.59343966       0.00002617       0.00001524      -0.00000449
Nb       1.60100658      19.41118495       6.59343866      -0.00002918       0.00007222      -0.00000813
Nb       4.80302273       2.77302916       6.59344187      -0.00003251       0.00000422      -0.00004634
Nb       4.80302266       8.31908739       6.59344073       0.00000109      -0.00008182       0.00000699
Nb       4.80302212      13.86514087       6.59343688      -0.00001506       0.00001364       0.00004387
Mo       4.80302272      19.41118364       6.59343917      -0.00001151       0.00006788      -0.00000566
Mo       8.00503785       2.77302838       6.59344117       0.00005429       0.00002600      -0.00003189
Mo       8.00504081       8.31908727       6.59344146       0.00005384      -0.00000871      -0.00001880
Mo       8.00504099      13.86514062       6.59344171      -0.00002193       0.00003712      -0.00000438
Nb       8.00503683      19.41118579       6.59343824       0.00005068       0.00004016      -0.00000455
Nb      11.20705803       2.77302815       6.59344335      -0.00001833      -0.00000424      -0.00002448
Mo      11.20705767       8.31908969       6.59344188      -0.00000361      -0.00015047      -0.00002117
Mo      11.20705845      13.86513994       6.59344031      -0.00004025       0.00006201      -0.00001110
Mo      11.20705962      19.41118973       6.59343932      -0.00001795       0.00002390      -0.00001838
Nb      14.40907682       2.77302307       6.59344342      -0.00005637       0.00003945      -0.00005554
Nb      14.40907840       8.31908964       6.59344109      -0.00004111      -0.00014353      -0.00001345
Nb      14.40908145      13.86514458       6.59344209      -0.00007913      -0.00010517       0.00001075
Nb      14.40907854      19.41118487       6.59343994      -0.00000130       0.00009984      -0.00002284
Mo      17.61108725       2.77302553       6.59344470       0.00012026       0.00000335      -0.00012123
Mo      17.61109296       8.31908781       6.59344153       0.00007701      -0.00006172      -0.00001372
Nb      17.61109362      13.86514032       6.59344237      -0.00002639       0.00003741       0.00000799
Mo      17.61108725      19.41118721       6.59343932       0.00016611       0.00005111      -0.00000689
Nb      20.81311493       2.77302984       6.59344208      -0.00013092       0.00002348       0.00001397
Nb      20.81311462       8.31908986       6.59344135      -0.00012937      -0.00003461      -0.00000163
Mo      20.81311613      13.86514075       6.59343840      -0.00016772      -0.00001931      -0.00003196
Mo      20.81311481      19.41118709       6.59343904      -0.00012531       0.00009852       0.00000305
S       -0.00000537       1.84868775       8.15067310       0.00005738      -0.00002027      -0.00563329
S       -0.00000986       7.39474310       8.15065625       0.00011592      -0.00003334      -0.00547692
S       -0.00000125      12.94080303       8.15065479       0.00004363      -0.00008943      -0.00544658
S       -0.00000854      18.48684157       8.15066215       0.00010456       0.00008866      -0.00550908
S        3.20200575       1.84869423       8.15066596       0.00009505      -0.00007417      -0.00556779
S        3.20200975       7.39473949       8.15066246       0.00004929       0.00003258      -0.00555998
S        3.20201902      12.94079485       8.15065891      -0.00003307       0.00005105      -0.00550371
S        3.20201107      18.48683928       8.15066293       0.00003199       0.00011248      -0.00556609
S        6.40402810       1.84869363       8.15066434       0.00002296      -0.00008652      -0.00553599
S        6.40404260       7.39474830       8.15066321      -0.00012225      -0.00006636      -0.00557238
S        6.40403773      12.94080497       8.15065337      -0.00008523      -0.00011034      -0.00546592
S        6.40402903      18.48683850       8.15066545       0.00001757       0.00010501      -0.00559166
S        9.60604710       1.84869405       8.15067012       0.00000718      -0.00007657      -0.00562730
S        9.60605266       7.39474329       8.15066781      -0.00003533      -0.00002476      -0.00564277
S        9.60605352      12.94080631       8.15065990      -0.00004580      -0.00012148      -0.00547829
S        9.60605056      18.48683905       8.15065482      -0.00002065       0.00011762      -0.00547311
S       12.80806297       1.84868937       8.15067688       0.00004460      -0.00004127      -0.00569266
S       12.80806237       7.39474374       8.15066761       0.00007186      -0.00002345      -0.00563884
S       12.80805989      12.94080175       8.15065840       0.00011822      -0.00006484      -0.00552085
S       12.80806352      18.48684131       8.15066276       0.00004326       0.00008919      -0.00555506
S       16.01008947       1.84868973       8.15065875      -0.00009203      -0.00007276      -0.00542128
S       16.01009594       7.39474630       8.15065727      -0.00011938      -0.00006025      -0.00548252
S       16.01009225      12.94079857       8.15066884      -0.00007967      -0.00003044      -0.00563264
S       16.01009446      18.48683853       8.15065902      -0.00011377       0.00010791      -0.00546521
S       19.21210558       1.84868742       8.15066513      -0.00002918      -0.00003730      -0.00558910
S       19.21210633       7.39474450       8.15066461      -0.00002866      -0.00005369      -0.00560611
S       19.21209944      12.94080207       8.15065714       0.00006751      -0.00010466      -0.00551623
S       19.21210207      18.48684200       8.15065752      -0.00001817       0.00009296      -0.00551274
S        1.60100188       4.62171293       8.15066808       0.00004187       0.00001754      -0.00562280
S        1.60100728      10.16777062       8.15067118      -0.00000482       0.00001177      -0.00565696
S        1.60100853      15.71382498       8.15066755      -0.00000656      -0.00003709      -0.00556955
S        1.60100654      21.25988099       8.15065832       0.00002625      -0.00005188      -0.00555313
S        4.80302236       4.62171329       8.15065417      -0.00000799       0.00003318      -0.00542524
S        4.80302447      10.16776371       8.15066376      -0.00002407       0.00007599      -0.00555205
S        4.80302547      15.71382035       8.15066864      -0.00002699       0.00000202      -0.00562167
S        4.80302673      21.25988040       8.15065625      -0.00004701      -0.00005504      -0.00550807
S        8.00503578       4.62170523       8.15065179       0.00003952       0.00011714      -0.00542289
S        8.00504257      10.16776874       8.15066946      -0.00005301       0.00001033      -0.00560701
S        8.00504069      15.71382231       8.15066745      -0.00001225       0.00002462      -0.00559029
S        8.00504367      21.25987775       8.15066001      -0.00003564      -0.00003168      -0.00555006
S       11.20705487       4.62170567       8.15065606      -0.00000074       0.00011925      -0.00548249
S       11.20705622      10.16776139       8.15066118       0.00001975       0.00010331      -0.00548640
S       11.20705648      15.71381475       8.15065682       0.00002141       0.00010023      -0.00545970
S       11.20705735      21.25988060       8.15066176       0.00000956      -0.00002564      -0.00556785
S       14.40908184       4.62170475       8.15065387      -0.00008926       0.00010551      -0.00544608
S       14.40908246      10.16776594       8.15065637      -0.00011957       0.00007762      -0.00546780
S       14.40908109      15.71382483       8.15067234      -0.00009715      -0.00000811      -0.00564149
S       14.40908028      21.25987918       8.15065982      -0.00009596      -0.00006065      -0.00553665
S       17.61108485       4.62170738       8.15065624       0.00009835       0.00008484      -0.00548080
S       17.61107759      10.16775998       8.15066354       0.00015775       0.00012596      -0.00557020
S       17.61108024      15.71382344       8.15066905       0.00013857       0.00001625      -0.00563246
S       17.61107879      21.25988037       8.15065869       0.00012500      -0.00002821      -0.00553861
S       20.81311755       4.62170946       8.15067031      -0.00010142       0.00004795      -0.00565013
S       20.81312475      10.16777010       8.15067058      -0.00018515       0.00000693      -0.00563523
S       20.81312265      15.71381683       8.15065537      -0.00015828       0.00006140      -0.00543553
S       20.81312121      21.25987749       8.15065851      -0.00015481      -0.00003370      -0.00551459
S       -0.00000621       1.84868783       5.03621973       0.00007647      -0.00000843       0.00553572
S       -0.00000687       7.39474512       5.03621798       0.00008957      -0.00003663       0.00553772
S       -0.00000632      12.94080492       5.03621553       0.00009385      -0.00010586       0.00555614
S       -0.00000733      18.48683942       5.03621677       0.00009995       0.00007913       0.00552753
S        3.20201807       1.84868975       5.03621765      -0.00004409      -0.00001713       0.00557792
S        3.20201155       7.39474466       5.03621807       0.00001898      -0.00001788       0.00558239
S        3.20201092      12.94080023       5.03621265       0.00002276      -0.00003454       0.00560680
S        3.20201591      18.48684018       5.03621159      -0.00001671       0.00007451       0.00563103
S        6.40403782       1.84869059       5.03622355      -0.00008270      -0.00005902       0.00549993
S        6.40403184       7.39474128       5.03621870      -0.00000230       0.00003016       0.00557142
S        6.40402610      12.94080512       5.03621654       0.00007045      -0.00011917       0.00557292
S        6.40403238      18.48684033       5.03621159      -0.00002078       0.00005360       0.00563136
S        9.60604947       1.84869057       5.03622246      -0.00000016      -0.00003149       0.00551891
S        9.60605128       7.39474731       5.03621929      -0.00002250      -0.00002452       0.00556684
S        9.60604961      12.94081108       5.03622910      -0.00001696      -0.00019841       0.00543863
S        9.60605249      18.48684316       5.03621547      -0.00003627       0.00006621       0.00558099
S       12.80806587       1.84869011       5.03622092       0.00000899      -0.00004207       0.00555342
S       12.80806603       7.39474594       5.03622095       0.00002336      -0.00001888       0.00556740
S       12.80805770      12.94080888       5.03622001       0.00014750      -0.00012781       0.00555336
S       12.80806683      18.48684499       5.03621517       0.00002726       0.00003906       0.00559404
S       16.01008389       1.84868590       5.03621678      -0.00002779      -0.00000183       0.00555271
S       16.01009407       7.39474960       5.03622346      -0.00009820      -0.00006535       0.00548059
S       16.01009491      12.94079950       5.03621683      -0.00011548      -0.00000810       0.00559449
S       16.01009611      18.48684351       5.03621425      -0.00014019       0.00004279       0.00556251
S       19.21209757       1.84868877       5.03622190       0.00004291      -0.00003500       0.00556573
S       19.21210281       7.39474780       5.03622330       0.00000843      -0.00007685       0.00553063
S       19.21210509      12.94080541       5.03622145      -0.00001795      -0.00014059       0.00555465
S       19.21210208      18.48684582       5.03621736      -0.00002458       0.00003948       0.00556841
S        1.60101071       4.62171048       5.03621892      -0.00003063       0.00002325       0.00555843
S        1.60100421      10.16777412       5.03622010       0.00004875      -0.00003281       0.00555348
S        1.60100395      15.71382688       5.03622515       0.00004438      -0.00002777       0.00547591
S        1.60100550      21.25987784       5.03621902       0.00002855      -0.00000895       0.00559145
S        4.80302496       4.62171220       5.03621770      -0.00004014       0.00002980       0.00556317
S        4.80302414      10.16777289       5.03621941      -0.00003760      -0.00002501       0.00555941
S        4.80302213      15.71382467       5.03621888      -0.00000040       0.00000210       0.00554779
S        4.80302224      21.25987539       5.03622005       0.00001385       0.00000516       0.00557229
S        8.00503572       4.62171573       5.03621445       0.00002982      -0.00001555       0.00558522
S        8.00503881      10.16776829       5.03621494       0.00000535       0.00002190       0.00562343
S        8.00504131      15.71381896       5.03622258      -0.00003055       0.00006068       0.00550801
S        8.00504202      21.25987747       5.03621895      -0.00001613      -0.00000012       0.00558916
S       11.20705395       4.62171375       5.03621647       0.00002272       0.00000540       0.00558978
S       11.20705721      10.16777019       5.03621858      -0.00003390       0.00001769       0.00554141
S       11.20705675      15.71382277       5.03621970       0.00001459       0.00002581       0.00551951
S       11.20705831      21.25987700       5.03621675       0.00001222       0.00004709       0.00561780
S       14.40908220       4.62170915       5.03622141      -0.00010584       0.00001803       0.00551695
S       14.40908094      10.16777215       5.03621767      -0.00010100       0.00000659       0.00553867
S       14.40907507      15.71382403       5.03621704      -0.00001525       0.00000221       0.00556985
S       14.40908584      21.25987864       5.03622077      -0.00017451      -0.00003268       0.00555557
S       17.61108324       4.62170620       5.03622138       0.00010569       0.00006243       0.00552887
S       17.61108149      10.16776692       5.03621427       0.00011957       0.00005017       0.00561213
S       17.61108157      15.71382461       5.03622317       0.00010139      -0.00000045       0.00552717
S       17.61108133      21.25987789       5.03622111       0.00009603       0.00000355       0.00555202
S       20.81312314       4.62171470       5.03621491      -0.00016240      -0.00003157       0.00557762
S       20.81311993      10.16776472       5.03621154      -0.00013205       0.00005643       0.00561923
S       20.81311835      15.71382147       5.03621636      -0.00010025       0.00004095       0.00556022
S       20.81312151      21.25987845       5.03622133      -0.00014918      -0.00001238       0.00552478
